V -t * -v 1.0a5 -a 0
A -t * -n 1 -p 0 -o 0x7fffffff -c 30 -a 1
A -t * -h 1 -m 1073741823 -s 0
n -t * -a 0 -s 0 -S UP -v circle -c black -i black
n -t * -a 1 -s 1 -S UP -v circle -c black -i black
l -t * -s 0 -d 1 -S UP -r 100000000 -D 0.01 -c black -o right
+ -t 1 -s 0 -d 1 -p tcp -e 40 -c 0 -i 0 -a 0 -x {0.0 1.0 0 ------- null}
- -t 1 -s 0 -d 1 -p tcp -e 40 -c 0 -i 0 -a 0 -x {0.0 1.0 0 ------- null}
h -t 1 -s 0 -d 1 -p tcp -e 40 -c 0 -i 0 -a 0 -x {0.0 1.0 -1 ------- null}
r -t 1.0100032 -s 0 -d 1 -p tcp -e 40 -c 0 -i 0 -a 0 -x {0.0 1.0 0 ------- null}
+ -t 1.0100032 -s 1 -d 0 -p ack -e 40 -c 0 -i 1 -a 0 -x {1.0 0.0 0 ------- null}
- -t 1.0100032 -s 1 -d 0 -p ack -e 40 -c 0 -i 1 -a 0 -x {1.0 0.0 0 ------- null}
h -t 1.0100032 -s 1 -d 0 -p ack -e 40 -c 0 -i 1 -a 0 -x {1.0 0.0 -1 ------- null}
r -t 1.0200064 -s 1 -d 0 -p ack -e 40 -c 0 -i 1 -a 0 -x {1.0 0.0 0 ------- null}
+ -t 1.0200064 -s 0 -d 1 -p tcp -e 1540 -c 0 -i 2 -a 0 -x {0.0 1.0 1 ------- null}
- -t 1.0200064 -s 0 -d 1 -p tcp -e 1540 -c 0 -i 2 -a 0 -x {0.0 1.0 1 ------- null}
h -t 1.0200064 -s 0 -d 1 -p tcp -e 1540 -c 0 -i 2 -a 0 -x {0.0 1.0 -1 ------- null}
+ -t 1.0200064 -s 0 -d 1 -p tcp -e 1540 -c 0 -i 3 -a 0 -x {0.0 1.0 2 ------- null}
- -t 1.0201296 -s 0 -d 1 -p tcp -e 1540 -c 0 -i 3 -a 0 -x {0.0 1.0 2 ------- null}
h -t 1.0201296 -s 0 -d 1 -p tcp -e 1540 -c 0 -i 3 -a 0 -x {0.0 1.0 -1 ------- null}
r -t 1.0301296 -s 0 -d 1 -p tcp -e 1540 -c 0 -i 2 -a 0 -x {0.0 1.0 1 ------- null}
+ -t 1.0301296 -s 1 -d 0 -p ack -e 40 -c 0 -i 4 -a 0 -x {1.0 0.0 1 ------- null}
- -t 1.0301296 -s 1 -d 0 -p ack -e 40 -c 0 -i 4 -a 0 -x {1.0 0.0 1 ------- null}
h -t 1.0301296 -s 1 -d 0 -p ack -e 40 -c 0 -i 4 -a 0 -x {1.0 0.0 -1 ------- null}
r -t 1.0302528 -s 0 -d 1 -p tcp -e 1540 -c 0 -i 3 -a 0 -x {0.0 1.0 2 ------- null}
+ -t 1.0302528 -s 1 -d 0 -p ack -e 40 -c 0 -i 5 -a 0 -x {1.0 0.0 2 ------- null}
- -t 1.0302528 -s 1 -d 0 -p ack -e 40 -c 0 -i 5 -a 0 -x {1.0 0.0 2 ------- null}
h -t 1.0302528 -s 1 -d 0 -p ack -e 40 -c 0 -i 5 -a 0 -x {1.0 0.0 -1 ------- null}
r -t 1.0401328 -s 1 -d 0 -p ack -e 40 -c 0 -i 4 -a 0 -x {1.0 0.0 1 ------- null}
+ -t 1.0401328 -s 0 -d 1 -p tcp -e 1540 -c 0 -i 6 -a 0 -x {0.0 1.0 3 ------- null}
- -t 1.0401328 -s 0 -d 1 -p tcp -e 1540 -c 0 -i 6 -a 0 -x {0.0 1.0 3 ------- null}
h -t 1.0401328 -s 0 -d 1 -p tcp -e 1540 -c 0 -i 6 -a 0 -x {0.0 1.0 -1 ------- null}
+ -t 1.0401328 -s 0 -d 1 -p tcp -e 1540 -c 0 -i 7 -a 0 -x {0.0 1.0 4 ------- null}
r -t 1.040256 -s 1 -d 0 -p ack -e 40 -c 0 -i 5 -a 0 -x {1.0 0.0 2 ------- null}
+ -t 1.040256 -s 0 -d 1 -p tcp -e 1540 -c 0 -i 8 -a 0 -x {0.0 1.0 5 ------- null}
+ -t 1.040256 -s 0 -d 1 -p tcp -e 1540 -c 0 -i 9 -a 0 -x {0.0 1.0 6 ------- null}
- -t 1.040256 -s 0 -d 1 -p tcp -e 1540 -c 0 -i 7 -a 0 -x {0.0 1.0 4 ------- null}
h -t 1.040256 -s 0 -d 1 -p tcp -e 1540 -c 0 -i 7 -a 0 -x {0.0 1.0 -1 ------- null}
- -t 1.0403792 -s 0 -d 1 -p tcp -e 1540 -c 0 -i 8 -a 0 -x {0.0 1.0 5 ------- null}
h -t 1.0403792 -s 0 -d 1 -p tcp -e 1540 -c 0 -i 8 -a 0 -x {0.0 1.0 -1 ------- null}
- -t 1.0405024 -s 0 -d 1 -p tcp -e 1540 -c 0 -i 9 -a 0 -x {0.0 1.0 6 ------- null}
h -t 1.0405024 -s 0 -d 1 -p tcp -e 1540 -c 0 -i 9 -a 0 -x {0.0 1.0 -1 ------- null}
r -t 1.050256 -s 0 -d 1 -p tcp -e 1540 -c 0 -i 6 -a 0 -x {0.0 1.0 3 ------- null}
+ -t 1.050256 -s 1 -d 0 -p ack -e 40 -c 0 -i 10 -a 0 -x {1.0 0.0 3 ------- null}
- -t 1.050256 -s 1 -d 0 -p ack -e 40 -c 0 -i 10 -a 0 -x {1.0 0.0 3 ------- null}
h -t 1.050256 -s 1 -d 0 -p ack -e 40 -c 0 -i 10 -a 0 -x {1.0 0.0 -1 ------- null}
r -t 1.0503792 -s 0 -d 1 -p tcp -e 1540 -c 0 -i 7 -a 0 -x {0.0 1.0 4 ------- null}
+ -t 1.0503792 -s 1 -d 0 -p ack -e 40 -c 0 -i 11 -a 0 -x {1.0 0.0 4 ------- null}
- -t 1.0503792 -s 1 -d 0 -p ack -e 40 -c 0 -i 11 -a 0 -x {1.0 0.0 4 ------- null}
h -t 1.0503792 -s 1 -d 0 -p ack -e 40 -c 0 -i 11 -a 0 -x {1.0 0.0 -1 ------- null}
r -t 1.0505024 -s 0 -d 1 -p tcp -e 1540 -c 0 -i 8 -a 0 -x {0.0 1.0 5 ------- null}
+ -t 1.0505024 -s 1 -d 0 -p ack -e 40 -c 0 -i 12 -a 0 -x {1.0 0.0 5 ------- null}
- -t 1.0505024 -s 1 -d 0 -p ack -e 40 -c 0 -i 12 -a 0 -x {1.0 0.0 5 ------- null}
h -t 1.0505024 -s 1 -d 0 -p ack -e 40 -c 0 -i 12 -a 0 -x {1.0 0.0 -1 ------- null}
r -t 1.0506256 -s 0 -d 1 -p tcp -e 1540 -c 0 -i 9 -a 0 -x {0.0 1.0 6 ------- null}
+ -t 1.0506256 -s 1 -d 0 -p ack -e 40 -c 0 -i 13 -a 0 -x {1.0 0.0 6 ------- null}
- -t 1.0506256 -s 1 -d 0 -p ack -e 40 -c 0 -i 13 -a 0 -x {1.0 0.0 6 ------- null}
















